 &FCI NORB=   4,NELEC= 4,MS2=0,
  ORBSYM=1,1,1,1,
  ISYM=1,
 &END
 0.3504818109753054    1    1    1    1
 0.1646435926432164    2    1    2    1
 0.3191066712901002    2    2    1    1
 0.3323423836865338    2    2    2    2
 -0.05761825433940554    3    1    1    1
 0.01742726835827644    3    1    2    2
 0.1277814823823024    3    1    3    1
 0.06970567776864725    3    2    2    1
 0.145591052878396    3    2    3    2
 0.3221455490022311    3    3    1    1
 0.3349987799916552    3    3    2    2
 0.01790411581194735    3    3    3    1
 0.3414058589101036    3    3    3    3
 0.03039915094305158    4    1    2    1
 -0.1039510623023268    4    1    3    2
 0.1233468624084355    4    1    4    1
 0.0598408005815434    4    2    1    1
 -0.01508470987720066    4    2    2    2
 -0.129023423068218    4    2    3    1
 -0.01763499534848    4    2    3    3
 0.1319766274691915    4    2    4    2
 -0.1683268151106364    4    3    2    1
 -0.07277924295802954    4    3    3    2
 -0.03022851127991161    4    3    4    1
 0.1748372881273868    4    3    4    3
 0.3619505862321726    4    4    1    1
 0.330416280619908    4    4    2    2
 -0.05975714084926792    4    4    3    1
 0.3347030302987871    4    4    3    3
 0.06282747786215326    4    4    4    2
 0.3780199872233818    4    4    4    4
 -1.133797143477508    1    1  0  0
 -1.042268253971329    2    2  0  0
 0.09246939606205022    3    1  0  0
 -0.9786021648834586    3    3  0  0
 -0.07419773979574343    4    2  0  0
 -0.9671086980869977    4    4  0  0
 1.14655062366  0  0  0  0
