 &FCI NORB=   4,NELEC= 4,MS2=0,
  ORBSYM=1,1,1,1,
  ISYM=1,
 &END
 0.3504818109753053    1    1    1    1
 0.1646435926432164    2    1    2    1
 0.3191066712901003    2    2    1    1
 0.3323423836865336    2    2    2    2
 -0.05761825433940546    3    1    1    1
 0.01742726835827587    3    1    2    2
 0.1277814823823022    3    1    3    1
 0.06970567776864658    3    2    2    1
 0.1455910528783956    3    2    3    2
 0.3221455490022308    3    3    1    1
 0.3349987799916549    3    3    2    2
 0.01790411581194756    3    3    3    1
 0.3414058589101033    3    3    3    3
 -0.03039915094305149    4    1    2    1
 0.103951062302327    4    1    3    2
 0.1233468624084353    4    1    4    1
 -0.05984080058154347    4    2    1    1
 0.01508470987720007    4    2    2    2
 0.1290234230682181    4    2    3    1
 0.0176349953484802    4    2    3    3
 0.1319766274691919    4    2    4    2
 0.1683268151106366    4    3    2    1
 0.07277924295802959    4    3    3    2
 -0.03022851127991082    4    3    4    1
 0.1748372881273871    4    3    4    3
 0.3619505862321721    4    4    1    1
 0.3304162806199082    4    4    2    2
 -0.05975714084926705    4    4    3    1
 0.3347030302987869    4    4    3    3
 -0.06282747786215255    4    4    4    2
 0.3780199872233808    4    4    4    4
 -1.133797143477508    1    1  0  0
 -1.042268253971329    2    2  0  0
 0.09246939606204994    3    1  0  0
 -0.9786021648834581    3    3  0  0
 0.0741977397957431    4    2  0  0
 -0.9671086980869971    4    4  0  0
 1.14655062366  0  0  0  0
