 &FCI NORB=   5,NELEC= 4,MS2=0,
  ORBSYM=1,1,1,1,1,
  ISYM=1,
 &END
 0.3517956307349002    1    1    1    1
 1.411250442155394e-06    2    1    1    1
 0.02852616134719953    2    1    2    1
 0.2947332554826107    2    2    1    1
 -2.779605254056572e-06    2    2    2    1
 0.3517925068508639    2    2    2    2
 -1.422870870611449e-05    3    1    1    1
 -4.952992655755245e-06    3    1    2    1
 7.502885437358359e-06    3    1    2    2
 0.05552226796774329    3    1    3    1
 -1.570000297035183e-06    3    2    1    1
 -1.740050642472929e-06    3    2    2    1
 2.962781668260084e-06    3    2    2    2
 -3.245419966492816e-06    3    2    3    1
 0.09657811782664576    3    2    3    2
 0.2995413619072947    3    3    1    1
 -2.848212481235471e-06    3    3    2    1
 0.3522855003695056    3    3    2    2
 6.365483827248594e-06    3    3    3    1
 4.548138568857829e-06    3    3    3    2
 0.3586691595970093    3    3    3    3
 1.611760566823384e-06    4    1    1    1
 -1.463446333028421e-06    4    1    2    1
 -1.349348663252231e-06    4    1    2    2
 3.517891541366096e-06    4    1    3    1
 -0.01101525793181845    4    1    3    2
 -2.26898967473077e-06    4    1    3    3
 0.09656482309376818    4    1    4    1
 -1.19094545427583e-05    4    2    1    1
 -4.001930352166838e-06    4    2    2    1
 7.909983651997049e-06    4    2    2    2
 0.05205226921059665    4    2    3    1
 -3.040492118758231e-06    4    2    3    2
 5.594241751255558e-06    4    2    3    3
 3.321346626056123e-06    4    2    4    1
 0.05552314825531027    4    2    4    2
 1.44015742659456e-06    4    3    1    1
 0.02636735216456241    4    3    2    1
 -3.022035293814406e-06    4    3    2    2
 -2.823080339105916e-06    4    3    3    1
 -3.468294644178374e-06    4    3    3    2
 -3.258877810664342e-06    4    3    3    3
 -2.085107739582316e-06    4    3    4    1
 -1.876010220006746e-06    4    3    4    2
 0.02818985064762658    4    3    4    3
 0.3522868371024954    4    4    1    1
 1.625676212958782e-06    4    4    2    1
 0.2995426592683366    4    4    2    2
 -1.410071999649251e-05    4    4    3    1
 -2.263994055888563e-06    4    4    3    2
 0.3022788904688709    4    4    3    3
 7.648270492877085e-06    4    4    4    1
 -1.292732883621632e-05    4    4    4    2
 1.879747832733009e-06    4    4    4    3
 0.3586700368541845    4    4    4    4
 0.01283299500875318    5    1    1    1
 -0.03663335594528448    5    1    2    1
 -0.01283034304462945    5    1    2    2
 5.574925189984897e-06    5    1    3    1
 -6.842011113919206e-06    5    1    3    2
 -0.0131243211433761    5    1    3    3
 1.369277453874222e-05    5    1    4    1
 4.756371791852371e-06    5    1    4    2
 -0.03747135287118213    5    1    4    3
 0.01312604247756948    5    1    4    4
 0.05665435578697946    5    1    5    1
 -0.0366367927609641    5    2    1    1
 -0.01283307946939272    5    2    2    1
 0.03663587824670737    5    2    2    2
 -9.813508863282683e-06    5    2    3    1
 -3.937267999052502e-06    5    2    3    2
 0.03747614962506444    5    2    3    3
 5.228797837802251e-06    5    2    4    1
 -1.182507164949539e-05    5    2    4    2
 -0.0131271401529674    5    2    4    3
 -0.03747547111470742    5    2    4    4
 -6.231834617483403e-08    5    2    5    1
 0.0566526427980777    5    2    5    2
 8.257700294007908e-06    5    3    1    1
 -1.069166325661734e-05    5    3    2    1
 -4.945252063716377e-06    5    3    2    2
 -0.02551431306168998    5    3    3    1
 0.07284353228906448    5    3    3    2
 -2.485787477522414e-06    5    3    3    3
 -0.07283308563618396    5    3    4    1
 -0.02551443342659681    5    3    4    2
 -1.265279238375598e-05    5    3    4    3
 4.032014344866608e-06    5    3    4    4
 2.918682655023413e-06    5    3    5    1
 -8.336075753220817e-07    5    3    5    2
 0.112400661299522    5    3    5    3
 2.400677331088931e-05    5    4    1    1
 7.863896190750397e-06    5    4    2    1
 -1.68805461625279e-05    5    4    2    2
 -0.07283587953470438    5    4    3    1
 -0.0255145073297254    5    4    3    2
 -1.52876341066744e-05    5    4    3    3
 0.02550996915069726    5    4    4    1
 -0.07283695179886476    5    4    4    2
 5.335124982963624e-06    5    4    4    3
 2.671135453224949e-05    5    4    4    4
 -1.897469398326468e-06    5    4    5    1
 8.405048601792253e-06    5    4    5    2
 4.926931697598128e-07    5    4    5    3
 0.112411610648309    5    4    5    4
 0.3281362239963391    5    5    1    1
 -7.433412687139068e-07    5    5    2    1
 0.3281295002136511    5    5    2    2
 7.301936288247809e-06    5    5    3    1
 9.193105951002534e-07    5    5    3    2
 0.3339130747973895    5    5    3    3
 3.339552216707897e-07    5    5    4    1
 8.081714576488319e-06    5    5    4    2
 -8.090004939911855e-07    5    5    4    3
 0.3339204801580996    5    5    4    4
 2.614739551947201e-06    5    5    5    1
 -4.207182895399342e-06    5    5    5    2
 -3.291655833695395e-06    5    5    5    3
 -1.051307284717466e-05    5    5    5    4
 0.3381774131843853    5    5    5    5
 -1.193829033111834    1    1  0  0
 -7.517298238785674e-07    2    1  0  0
 -1.193792065449341    2    2  0  0
 -1.04372003810106e-06    3    1  0  0
 1.5429458254883e-06    3    2  0  0
 -0.8817600008012167    3    3  0  0
 -3.951704446214729e-06    4    1  0  0
 1.209327114646987e-05    4    2  0  0
 4.167825776782405e-07    4    3  0  0
 -0.8817282818205807    4    4  0  0
 -7.970741043578436e-06    5    1  0  0
 7.776322459768226e-06    5    2  0  0
 1.473770694371268e-08    5    3  0  0
 -5.107680054957514e-06    5    4  0  0
 -0.6928336786240955    5    5  0  0
 -224.9406931940701  0  0  0  0
