 &FCI NORB=   5,NELEC= 4,MS2=0,
  ORBSYM=1,1,1,1,1,
  ISYM=1,
 &END
 0.3517956307349157    1    1    1    1
 1.411250416423048e-06    2    1    1    1
 0.02852616134715894    2    1    2    1
 0.2947332554825706    2    2    1    1
 -2.779605260525356e-06    2    2    2    1
 0.3517925068509307    2    2    2    2
 -1.42287086961265e-05    3    1    1    1
 -4.952992656240968e-06    3    1    2    1
 7.502885467731632e-06    3    1    2    2
 0.05552226796779558    3    1    3    1
 -1.570000295372451e-06    3    2    1    1
 -1.740050626909857e-06    3    2    2    1
 2.962781720646131e-06    3    2    2    2
 -3.245419196190591e-06    3    2    3    1
 0.09657811782664508    3    2    3    2
 0.2995413619073239    3    3    1    1
 -2.848211515582566e-06    3    3    2    1
 0.3522855003695042    3    3    2    2
 6.365483816264325e-06    3    3    3    1
 4.548138520660272e-06    3    3    3    2
 0.3586691595969417    3    3    3    3
 1.611760549254104e-06    4    1    1    1
 -1.463446314103889e-06    4    1    2    1
 -1.349348667207401e-06    4    1    2    2
 3.517892246878785e-06    4    1    3    1
 -0.01101525793181749    4    1    3    2
 -2.268989671677657e-06    4    1    3    3
 0.09656482309376731    4    1    4    1
 -1.190945451000184e-05    4    2    1    1
 -4.001930330593817e-06    4    2    2    1
 7.909983659291561e-06    4    2    2    2
 0.05205226921059772    4    2    3    1
 -3.040492890882783e-06    4    2    3    2
 5.594241717184721e-06    4    2    3    3
 3.321345923170023e-06    4    2    4    1
 0.05552314825526009    4    2    4    2
 1.440158358520646e-06    4    3    1    1
 0.02636735216456404    4    3    2    1
 -3.022036259697162e-06    4    3    2    2
 -2.823080359242586e-06    4    3    3    1
 -3.468294669303242e-06    4    3    3    2
 -3.258877804659596e-06    4    3    3    3
 -2.085107741473029e-06    4    3    4    1
 -1.876010218110694e-06    4    3    4    2
 0.02818985064766926    4    3    4    3
 0.3522868371024952    4    4    1    1
 1.625675284595493e-06    4    4    2    1
 0.2995426592683117    4    4    2    2
 -1.410072000802669e-05    4    4    3    1
 -2.263994052571772e-06    4    4    3    2
 0.3022788904689143    4    4    3    3
 7.648270503785026e-06    4    4    4    1
 -1.292732882518608e-05    4    4    4    2
 1.87974786120676e-06    4    4    4    3
 0.3586700368541689    4    4    4    4
 0.01283299501198286    5    1    1    1
 -0.03663335594414964    5    1    2    1
 -0.01283034304782323    5    1    2    2
 5.574925207587136e-06    5    1    3    1
 -6.842011097341755e-06    5    1    3    2
 -0.01312432114798992    5    1    3    3
 1.369277452610909e-05    5    1    4    1
 4.756371789604169e-06    5    1    4    2
 -0.03747135286960099    5    1    4    3
 0.01312604248215269    5    1    4    4
 0.05665435578700529    5    1    5    1
 -0.0366367927598269    5    2    1    1
 -0.01283307947258806    5    2    2    1
 0.03663587824562588    5    2    2    2
 -9.813508857114007e-06    5    2    3    1
 -3.937267992538615e-06    5    2    3    2
 0.03747614962338353    5    2    3    3
 5.228797828904855e-06    5    2    4    1
 -1.182507168677894e-05    5    2    4    2
 -0.01312714015761686    5    2    4    3
 -0.03747547111307215    5    2    4    4
 -6.231831281263214e-08    5    2    5    1
 0.05665264279805192    5    2    5    2
 8.257700311251059e-06    5    3    1    1
 -1.069166324605374e-05    5    3    2    1
 -4.945252048839388e-06    5    3    2    2
 -0.02551431307066079    5    3    3    1
 0.07284353228585289    5    3    3    2
 -2.485787516928392e-06    5    3    3    3
 -0.07283308563305155    5    3    4    1
 -0.02551443343563328    5    3    4    2
 -1.265279237700791e-05    5    3    4    3
 4.032014355281888e-06    5    3    4    4
 2.918682653575352e-06    5    3    5    1
 -8.336075790985747e-07    5    3    5    2
 0.1124006612994709    5    3    5    3
 2.400677329038488e-05    5    4    1    1
 7.863896178985502e-06    5    4    2    1
 -1.68805462137352e-05    5    4    2    2
 -0.0728358795316302    5    4    3    1
 -0.02551450733872374    5    4    3    2
 -1.528763407640694e-05    5    4    3    3
 0.02550996915964231    5    4    4    1
 -0.07283695179569079    5    4    4    2
 5.335125003266827e-06    5    4    4    3
 2.671135454837721e-05    5    4    4    4
 -1.897469409588293e-06    5    4    5    1
 8.405048600773971e-06    5    4    5    2
 4.926932363567144e-07    5    4    5    3
 0.1124116106483603    5    4    5    4
 0.3281362239963651    5    5    1    1
 -7.43341234855574e-07    5    5    2    1
 0.3281295002136254    5    5    2    2
 7.301936274267673e-06    5    5    3    1
 9.193105811738933e-07    5    5    3    2
 0.3339130747973636    5    5    3    3
 3.339552228642795e-07    5    5    4    1
 8.081714562352058e-06    5    5    4    2
 -8.090004597026412e-07    5    5    4    3
 0.3339204801581262    5    5    4    4
 2.614739521568724e-06    5    5    5    1
 -4.207182942465859e-06    5    5    5    2
 -3.291655839524066e-06    5    5    5    3
 -1.05130728223421e-05    5    5    5    4
 0.3381774131843853    5    5    5    5
 -1.193829033112016    1    1  0  0
 -7.517299646382894e-07    2    1  0  0
 -1.193792065449242    2    2  0  0
 -1.043719889340423e-06    3    1  0  0
 1.54294603086287e-06    3    2  0  0
 -0.8817600008011147    3    3  0  0
 -3.951704535157258e-06    4    1  0  0
 1.209327129558309e-05    4    2  0  0
 4.167824164871693e-07    4    3  0  0
 -0.8817282818207887    4    4  0  0
 -7.970740759245115e-06    5    1  0  0
 7.7763229627964e-06    5    2  0  0
 1.473779032146183e-08    5    3  0  0
 -5.107680244177681e-06    5    4  0  0
 -0.6928336786241539    5    5  0  0
 -224.9406931940702  0  0  0  0
