 &FCI NORB=   5,NELEC= 4,MS2=0,
  ORBSYM=1,1,1,1,1,
  ISYM=1,
 &END
 0.351795630734897    1    1    1    1
 1.411250447236724e-06    2    1    1    1
 0.02852616134720619    2    1    2    1
 0.2947332554826169    2    2    1    1
 -2.779605252360012e-06    2    2    2    1
 0.3517925068508526    2    2    2    2
 -1.422870870747901e-05    3    1    1    1
 -4.952992656268723e-06    3    1    2    1
 7.502885431758671e-06    3    1    2    2
 0.05552226796773399    3    1    3    1
 -1.570000297454986e-06    3    2    1    1
 -1.740050645435837e-06    3    2    2    1
 2.962781661813851e-06    3    2    2    2
 -3.245419922155018e-06    3    2    3    1
 0.0965781178266467    3    2    3    2
 0.2995413619072897    3    3    1    1
 -2.848212419784626e-06    3    3    2    1
 0.3522855003695067    3    3    2    2
 6.3654838288775e-06    3    3    3    1
 4.548138578662486e-06    3    3    3    2
 0.3586691595970226    3    3    3    3
 1.611760569342202e-06    4    1    1    1
 -1.463446336026457e-06    4    1    2    1
 -1.349348664015509e-06    4    1    2    2
 3.517891596759937e-06    4    1    3    1
 -0.01101525793181908    4    1    3    2
 -2.268989675837524e-06    4    1    3    3
 0.09656482309376857    4    1    4    1
 -1.190945454800454e-05    4    2    1    1
 -4.001930356784672e-06    4    2    2    1
 7.909983650153038e-06    4    2    2    2
 0.052052269210596    4    2    3    1
 -3.040492162219993e-06    4    2    3    2
 5.594241756652282e-06    4    2    3    3
 3.321346570379306e-06    4    2    4    1
 0.05552314825531823    4    2    4    2
 1.44015749323651e-06    4    3    1    1
 0.02636735216456187    4    3    2    1
 -3.022035354370567e-06    4    3    2    2
 -2.82308033609964e-06    4    3    3    1
 -3.468294639999425e-06    4    3    3    2
 -3.258877811430222e-06    4    3    3    3
 -2.085107739531521e-06    4    3    4    1
 -1.87601022104758e-06    4    3    4    2
 0.02818985064761903    4    3    4    3
 0.3522868371024955    4    4    1    1
 1.625676146047028e-06    4    4    2    1
 0.2995426592683404    4    4    2    2
 -1.410071999471442e-05    4    4    3    1
 -2.263994056762864e-06    4    4    3    2
 0.3022788904688638    4    4    3    3
 7.648270490406839e-06    4    4    4    1
 -1.292732883839427e-05    4    4    4    2
 1.879747827462919e-06    4    4    4    3
 0.3586700368541877    4    4    4    4
 0.01283299500596793    5    1    1    1
 -0.03663335594626056    5    1    2    1
 -0.01283034304185069    5    1    2    2
 5.574925186208404e-06    5    1    3    1
 -6.842011116840047e-06    5    1    3    2
 -0.0131243211406245    5    1    3    3
 1.369277454073715e-05    5    1    4    1
 4.756371791828085e-06    5    1    4    2
 -0.03747135287214001    5    1    4    3
 0.01312604247482336    5    1    4    4
 0.05665435578697529    5    1    5    1
 -0.03663679276194066    5    2    1    1
 -0.01283307946661364    5    2    2    1
 0.03663587824767445    5    2    2    2
 -9.813508864557705e-06    5    2    3    1
 -3.937267998391572e-06    5    2    3    2
 0.03747614962603954    5    2    3    3
 5.228797839106764e-06    5    2    4    1
 -1.182507164328422e-05    5    2    4    2
 -0.01312714015020947    5    2    4    3
 -0.03747547111567455    5    2    4    4
 -6.231835195363161e-08    5    2    5    1
 0.05665264279808194    5    2    5    2
 8.257700290271314e-06    5    3    1    1
 -1.069166325874064e-05    5    3    2    1
 -4.945252062720645e-06    5    3    2    2
 -0.02551431305634114    5    3    3    1
 0.07284353229095042    5    3    3    2
 -2.485787468645834e-06    5    3    3    3
 -0.07283308563805591    5    3    4    1
 -0.02551443342123642    5    3    4    2
 -1.2652792384691e-05    5    3    4    3
 4.032014342458812e-06    5    3    4    4
 2.918682655796232e-06    5    3    5    1
 -8.336075753463679e-07    5    3    5    2
 0.1124006612995306    5    3    5    3
 2.400677331411069e-05    5    4    1    1
 7.863896192811248e-06    5    4    2    1
 -1.688054615402255e-05    5    4    2    2
 -0.07283587953656638    5    4    3    1
 -0.02551450732437175    5    4    3    2
 -1.528763411173806e-05    5    4    3    3
 0.02550996914535309    5    4    4    1
 -0.0728369518007437    5    4    4    2
 5.335124979050088e-06    5    4    4    3
 2.671135452982781e-05    5    4    4    4
 -1.897469395335805e-06    5    4    5    1
 8.405048602259761e-06    5    4    5    2
 4.926931579359375e-07    5    4    5    3
 0.1124116106483009    5    4    5    4
 0.3281362239963349    5    5    1    1
 -7.433412742494094e-07    5    5    2    1
 0.3281295002136555    5    5    2    2
 7.301936291300923e-06    5    5    3    1
 9.193105966129322e-07    5    5    3    2
 0.3339130747973948    5    5    3    3
 3.339552227255016e-07    5    5    4    1
 8.081714579447757e-06    5    5    4    2
 -8.090005000765954e-07    5    5    4    3
 0.3339204801580957    5    5    4    4
 2.61473955731964e-06    5    5    5    1
 -4.207182887648597e-06    5    5    5    2
 -3.291655833778662e-06    5    5    5    3
 -1.051307285181678e-05    5    5    5    4
 0.3381774131843863    5    5    5    5
 -1.1938290331118    1    1  0  0
 -7.517298040283567e-07    2    1  0  0
 -1.193792065449359    2    2  0  0
 -1.043720061978147e-06    3    1  0  0
 1.542945784885059e-06    3    2  0  0
 -0.8817600008012418    3    3  0  0
 -3.951704425694496e-06    4    1  0  0
 1.209327112082092e-05    4    2  0  0
 4.167826025406222e-07    4    3  0  0
 -0.8817282818205405    4    4  0  0
 -7.970741087963071e-06    5    1  0  0
 7.77632237040915e-06    5    2  0  0
 1.473768485027449e-08    5    3  0  0
 -5.107680020339372e-06    5    4  0  0
 -0.6928336786240888    5    5  0  0
 -224.9406931940708  0  0  0  0
