 &FCI NORB=   4,NELEC= 4,MS2=0,
  ORBSYM=1,1,1,1,
  ISYM=1,
 &END
 0.3504818109753094    1    1    1    1
 0.1646435926432132    2    1    2    1
 0.3191066712900978    2    2    1    1
 0.3323423836865347    2    2    2    2
 -0.05761825433940935    3    1    1    1
 0.01742726835828038    3    1    2    2
 0.1277814823823002    3    1    3    1
 0.06970567776865211    3    2    2    1
 0.1455910528784006    3    2    3    2
 0.3221455490022292    3    3    1    1
 0.3349987799916564    3    3    2    2
 0.01790411581195064    3    3    3    1
 0.341405858910105    3    3    3    3
 -0.03039915094305649    4    1    2    1
 0.1039510623023236    4    1    3    2
 0.1233468624084376    4    1    4    1
 -0.05984080058154664    4    2    1    1
 0.01508470987720516    4    2    2    2
 0.1290234230682156    4    2    3    1
 0.01763499534848389    4    2    3    3
 0.1319766274691888    4    2    4    2
 0.1683268151106333    4    3    2    1
 0.07277924295803415    4    3    3    2
 -0.03022851127991709    4    3    4    1
 0.1748372881273836    4    3    4    3
 0.3619505862321769    4    4    1    1
 0.3304162806199054    4    4    2    2
 -0.05975714084927212    4    4    3    1
 0.334703030298785    4    4    3    3
 -0.06282747786215684    4    4    4    2
 0.3780199872233863    4    4    4    4
 -1.133797143477512    1    1  0  0
 -1.042268253971326    2    2  0  0
 0.09246939606204864    3    1  0  0
 -0.9786021648834563    3    3  0  0
 0.07419773979574459    4    2  0  0
 -0.9671086980870005    4    4  0  0
 1.14655062366  0  0  0  0
