filename
SP        R                             3-21g
Number of atoms                            I               4
Charge                                     I               0
Multiplicity                               I               1
Number of electrons                        I               4
Number of alpha electrons                  I               2
Number of beta electrons                   I               2
Atomic numbers                             I   N=           4
           1           1           1           1
Current cartesian coordinates              R   N=          12
  0.00000000e+00  0.00000000e+00  0.00000000e+00  0.00000000e+00  0.00000000e+00
  5.35659685e+00  0.00000000e+00  0.00000000e+00  1.07131937e+01  0.00000000e+00
  0.00000000e+00  1.60697906e+01
Nuclear charges                            R   N=           4
  1.00000000e+00  1.00000000e+00  1.00000000e+00  1.00000000e+00
Number of basis functions                  I               8
Number of contracted shells                I               8
Number of primitive shells                 I               12
Highest angular momentum                   I               0
Largest degree of contraction              I               2
Shell types                                I   N=           8
           0           0           0           0           0           0
           0           0
Number of primitives per shell             I   N=           8
           2           1           2           1           2           1
           2           1
Shell to atom map                          I   N=           8
           1           1           2           2           3           3
           4           4
Primitive exponents                        R   N=          12
  5.44717800e+00  8.24547000e-01  1.83192000e-01  5.44717800e+00  8.24547000e-01
  1.83192000e-01  5.44717800e+00  8.24547000e-01  1.83192000e-01  5.44717800e+00
  8.24547000e-01  1.83192000e-01
Contraction coefficients                   R   N=          12
  1.56284981e-01  9.04690888e-01  1.00000000e+00  1.56284981e-01  9.04690888e-01
  1.00000000e+00  1.56284981e-01  9.04690888e-01  1.00000000e+00  1.56284981e-01
  9.04690888e-01  1.00000000e+00
P(S=P) Contraction coefficients            R   N=          12
  0.00000000e+00  0.00000000e+00  0.00000000e+00  0.00000000e+00  0.00000000e+00
  0.00000000e+00  0.00000000e+00  0.00000000e+00  0.00000000e+00  0.00000000e+00
  0.00000000e+00  0.00000000e+00
Alpha Orbital Energies                     R   N=           8
  1.82585647e+00  1.43405619e+00  5.65943813e-01  1.74143530e-01  5.89117712e-17
 -1.01036800e-16 -1.21410735e-16 -2.62916526e-16
Total SCF Density                          R   N=          36
  1.26202078e-01  2.41740650e-01  4.64548057e-01  4.34544419e-02  7.23670909e-02
  1.16383896e-01  7.81848535e-02  1.29164183e-01  2.26046682e-01  4.41529293e-01
 -6.31785479e-03 -2.21027220e-02  3.76560243e-02  6.10190929e-02  1.16383929e-01
 -2.43062315e-02 -6.52918176e-02  6.10185139e-02  9.55676041e-02  2.26046798e-01
  4.41529583e-01 -6.83035293e-03 -1.49617677e-02 -6.31782018e-03 -2.43065145e-02
  4.34546143e-02  7.81859830e-02  1.26202590e-01 -1.49617687e-02 -3.08318849e-02
 -2.21023192e-02 -6.52915314e-02  7.23664883e-02  1.29164640e-01  2.41739776e-01
  4.64542850e-01
Alpha MO coefficients                      R   N=          64
 -1.15461231e-01 -1.97707596e-01 -1.87928416e-01 -3.40480699e-01 -1.87927982e-01
 -3.40479952e-01 -1.15460652e-01 -1.97704659e-01  2.03508690e-01  3.91456114e-01
  1.23514275e-01  2.56635604e-01 -1.23515684e-01 -2.56639369e-01 -2.03509200e-01
 -3.91453632e-01  2.49905925e-01  5.07023072e-01 -1.48832248e-01 -3.17034978e-01
 -1.48831509e-01 -3.17029679e-01  2.49907391e-01  5.07022023e-01 -2.02253619e-01
 -4.00539452e-01  3.16878314e-01  6.71527092e-01 -3.16877907e-01 -6.71528586e-01
  2.02254247e-01  4.00541607e-01  5.70901191e-02 -6.32655153e-02 -4.54921287e-01
  1.16963163e-01 -8.42660653e-01  1.08398789e+00  8.41806666e-01 -1.06798405e+00
  8.78748833e-01 -8.56990571e-01 -6.34381092e-02  2.10322819e-01 -6.30839701e-01
  3.71265455e-01 -7.01923777e-01  5.45605246e-01 -9.18450602e-01  9.14171998e-01
 -2.05800013e-01 -2.27667139e-01 -6.35983213e-01  5.80607672e-01 -6.23606007e-01
  4.05596434e-01 -4.56189926e-02  5.10760157e-01  1.20629047e+00 -1.62757539e+00
 -4.42671508e-01  1.05298477e+00  1.75699831e-01 -4.81913579e-01
