[Molden Format]
made by pyscf v[2.5.0]
[Atoms] (AU)
H   1   1     0.00000000000000     0.00000000000000     0.00000000000000
H   2   1     5.66917837369519     0.00000000000000     0.00000000000000
H   3   1     0.00000000000000     5.66917837369519     0.00000000000000
H   4   1     5.66917837369519     5.66917837369519     0.00000000000000
[GTO]
1 0
 s    2 1.00
              5.447178     0.1562849806701
              0.824547    0.90469088810453
 s    1 1.00
              0.183192                   1

2 0
 s    2 1.00
              5.447178     0.1562849806701
              0.824547    0.90469088810453
 s    1 1.00
              0.183192                   1

3 0
 s    2 1.00
              5.447178     0.1562849806701
              0.824547    0.90469088810453
 s    1 1.00
              0.183192                   1

4 0
 s    2 1.00
              5.447178     0.1562849806701
              0.824547    0.90469088810453
 s    1 1.00
              0.183192                   1

[5d]
[7f]
[9g]

[MO]
 Sym= A
 Ene=   -0.3150620831
 Spin= Alpha
 Occup=    2.00000
   1      0.12809719217051
   2      0.38951282728612
   3       0.1280971193094
   4      0.38951262551275
   5      0.12809711930947
   6      0.38951262551293
   7      0.12809719217043
   8      0.38951282728594
 Sym= A
 Ene=   -0.2840203542
 Spin= Alpha
 Occup=    2.00000
   1      -0.1403668516449
   2      -0.3981734186318
   3     -0.14036699739521
   4     -0.39817381168138
   5       0.1403669973953
   6      0.39817381168157
   7      0.14036685164481
   8      0.39817341863162
 Sym= A
 Ene=   -0.1085357171
 Spin= Alpha
 Occup=    0.00000
   1     -0.13988597105132
   2     -0.39856573671348
   3        0.139885844138
   4      0.39856532831393
   5     -0.13988584413797
   6     -0.39856532831372
   7      0.13988597105135
   8      0.39856573671368
 Sym= A
 Ene=  -0.08079975268
 Spin= Alpha
 Occup=    0.00000
   1     -0.15262650466671
   2     -0.40597428394802
   3      0.15262658758971
   4      0.40597446082611
   5      0.15262658758968
   6       0.4059744608259
   7     -0.15262650466675
   8     -0.40597428394824
 Sym= A
 Ene=     1.049075041
 Spin= Alpha
 Occup=    0.00000
   1      0.62640420861435
   2     -0.46604019762747
   3      0.62640461316539
   4     -0.46604057498354
   5      0.62640461316717
   6     -0.46604057498501
   7      0.62640420861259
   8     -0.46604019762601
 Sym= A
 Ene=     1.138886784
 Spin= Alpha
 Occup=    0.00000
   1      -0.6404263391349
   2      0.52160659919044
   3      0.64051351706588
   4     -0.52167766006696
   5     -0.64051351706415
   6      0.52167766006569
   7      0.64042633913665
   8     -0.52160659919173
 Sym= A
 Ene=     1.139787312
 Spin= Alpha
 Occup=    0.00000
   1      0.64040827750359
   2       -0.521976848757
   3      0.64032108102008
   4      -0.5219058406344
   5     -0.64032108102159
   6      0.52190584063578
   7     -0.64040827750205
   8      0.52197684875561
 Sym= A
 Ene=     1.245196804
 Spin= Alpha
 Occup=    0.00000
   1      0.65697583660024
   2     -0.58487430719983
   3     -0.65697544581615
   4      0.58487401811576
   5     -0.65697544581464
   6      0.58487401811454
   7      0.65697583660173
   8     -0.58487430720103
