 &FCI NORB=4, NELEC=4, MS2=0, 
ORBSYM=1,1 
ISYM=1, 
 &END
-2.24940693194070519212e+02 0  0  0  0
-1.19382903311168120375e+00 1 1  0  0
-7.51729704139741067390e-07 2 1  0  0
-1.19379206544942162438e+00 2 2  0  0
-1.04372015448645346437e-06 3 1  0  0
1.54294564534388136133e-06 3 2  0  0
-8.81760000801309007379e-01 3 3  0  0
-3.95170436449526096172e-06 4 1  0  0
1.20932710271836578594e-05 4 2  0  0
4.16782718303247976059e-07 4 3  0  0
-8.81728281820400638935e-01 4 4  0  0
3.51795630734887787572e-01 1 1 1 1
1.41125046486113544034e-06 2 1 1 1
2.85261613472331948538e-02 2 1 2 1
2.85261613472331948538e-02 2 2 1 1
-2.77960524724084334647e-06 2 2 2 1
3.51792506850809705288e-01 2 2 2 2
-1.42287087169796068291e-05 3 1 1 1
-4.95299266001225646505e-06 3 1 2 1
-1.74005065585545320994e-06 3 1 2 2
5.55222679676989905317e-02 3 1 3 1
-4.95299266001225646505e-06 3 2 1 1
7.50288541066096437149e-06 3 2 2 1
2.96278163423695228840e-06 3 2 2 2
-3.24542085280033615335e-06 3 2 3 1
9.65781178266476858507e-02 3 2 3 2
5.55222679676989905317e-02 3 3 1 1
-3.24542085280033615335e-06 3 3 2 1
9.65781178266476858507e-02 3 3 2 2
6.36548383556485852797e-06 3 3 3 1
4.54813861514111877904e-06 3 3 3 2
3.58669159597068742951e-01 3 3 3 3
1.61176058020157109141e-06 4 1 1 1
-1.46344635064236949784e-06 4 1 2 1
-4.00193037466620160636e-06 4 1 2 2
3.51789070869557539412e-06 4 1 3 1
5.20522692105951784169e-02 4 1 3 2
-2.82308032633835082059e-06 4 1 3 3
9.65648230937695972731e-02 4 1 4 1
-1.46344635064236949784e-06 4 2 1 1
-1.34934866628799721155e-06 4 2 2 1
7.90998364411966969900e-06 4 2 2 2
-1.10152579318199966840e-02 4 2 3 1
-3.04049122952683437138e-06 4 2 3 2
-3.46829462327929299859e-06 4 2 3 3
3.32134745671967736985e-06 4 2 4 1
5.55231482553516231260e-02 4 2 4 2
3.51789070869557539412e-06 4 3 1 1
-1.10152579318199966840e-02 4 3 2 1
-3.04049122952683437138e-06 4 3 2 2
-2.26898968205650752861e-06 4 3 3 1
5.59424177843693970491e-06 4 3 3 2
-3.25887781533595183303e-06 4 3 3 3
-2.08510774033757086826e-06 4 3 4 1
-1.87601022542602247078e-06 4 3 4 2
2.81898506475904211954e-02 4 3 4 3
9.65648230937695972731e-02 4 4 1 1
3.32134745671967736985e-06 4 4 2 1
5.55231482553516231260e-02 4 4 2 2
-2.08510774033757086826e-06 4 4 3 1
-1.87601022542602247078e-06 4 4 3 2
2.81898506475904211954e-02 4 4 3 3
7.64827048498756267847e-06 4 4 4 1
-1.29273288486781399997e-05 4 4 4 2
1.87974780818715931155e-06 4 4 4 3
3.58670036854199070220e-01 4 4 4 4
