 &FCI NORB=   5,NELEC= 4,MS2=0,
  ORBSYM=1,1,1,1,1,
  ISYM=1,
 &END
 0.1758978153674579    1    1    1    1
 7.056252082115241e-07    2    1    1    1
 0.01426308067357947    2    1    2    1
 0.01426308067357947    2    2    1    1
 -1.389802630260943e-06    2    2    2    1
 0.1758962534254653    2    2    2    2
 -7.114354348063248e-06    3    1    1    1
 -2.476496328120484e-06    3    1    2    1
 -8.700253134549286e-07    3    1    2    2
 0.02776113398389779    3    1    3    1
 -2.476496328120484e-06    3    2    1    1
 3.751442733865816e-06    3    2    2    1
 1.481390860323065e-06    3    2    2    2
 -1.622709598085754e-06    3    2    3    1
 0.04828905891332254    3    2    3    2
 0.02776113398389779    3    3    1    1
 -1.622709598085754e-06    3    3    2    1
 0.04828905891332254    3    3    2    2
 3.18274190813303e-06    3    3    3    1
 2.274069260356591e-06    3    3    3    2
 0.1793345797984708    3    3    3    3
 8.058802746270521e-07    4    1    1    1
 -7.317231570519445e-07    4    1    2    1
 -2.000965165296908e-06    4    1    2    2
 1.758946123439392e-06    4    1    3    1
 0.02602613460529886    4    1    3    2
 -1.411540179621293e-06    4    1    3    3
 0.04828241154688365    4    1    4    1
 -7.317231570519445e-07    4    2    1    1
 -6.746743336037003e-07    4    2    2    1
 3.954991829645781e-06    4    2    2    2
 -0.005507628965908746    4    2    3    1
 -1.520246445441392e-06    4    2    3    2
 -1.734147334651621e-06    4    2    3    3
 1.660672961580675e-06    4    2    4    1
 0.02776157412763004    4    2    4    2
 1.758946123439392e-06    4    3    1    1
 -0.005507628965908746    4    3    2    1
 -1.520246445441392e-06    4    3    2    2
 -1.134494835838828e-06    4    3    3    1
 2.797120858592361e-06    4    3    3    2
 -1.629438902329798e-06    4    3    3    3
 -1.042553870735118e-06    4    3    4    1
 -9.380051090596836e-07    4    3    4    2
 0.01409492532383463    4    3    4    3
 0.04828241154688365    4    4    1    1
 1.660672961580675e-06    4    4    2    1
 0.02776157412763004    4    4    2    2
 -1.042553870735118e-06    4    4    3    1
 -9.380051090596836e-07    4    4    3    2
 0.01409492532383463    4    4    3    3
 3.824135251892513e-06    4    4    4    1
 -6.463664412599383e-06    4    4    4    2
 9.39873930602377e-07    4    4    4    3
 0.1793350184270844    4    4    4    4
 0.006416497505991429    5    1    1    1
 -0.01831667797207482    5    1    2    1
 -0.006416539736294032    5    1    2    2
 2.787462603793568e-06    5    1    3    1
 -4.906754428557003e-06    5    1    3    2
 -0.01275715653533039    5    1    3    3
 6.846387263054546e-06    5    1    4    1
 2.614398914452427e-06    5    1    4    2
 -0.03641654281652577    5    1    4    3
 0.01275498457982116    5    1    4    4
 0.02832717789350265    5    1    5    1
 -0.01831667797207482    5    2    1    1
 -0.006415171523911613    5    2    2    1
 0.01831793912281294    5    2    2    2
 -3.421005548670877e-06    5    2    3    1
 -1.968633996269308e-06    5    2    3    2
 0.03642176614292644    5    2    3    3
 2.378185894802085e-06    5    2    4    1
 -5.912535843389469e-06    5    2    4    2
 -0.01275721671781664    5    2    4    3
 -0.03641847589784539    5    2    4    4
 -3.115915639699193e-08    5    2    5    1
 0.02832632139902596    5    2    5    2
 2.787462603793568e-06    5    3    1    1
 -3.421005548670877e-06    5    3    2    1
 -1.968633996269308e-06    5    3    2    2
 -0.006562160573994961    5    3    3    1
 0.01873807481169176    5    3    3    2
 -1.242893758464196e-06    5    3    3    3
 -0.01873567643480049    5    3    4    1
 -0.006563570078808431    5    3    4    2
 -6.326396188503954e-06    5    3    4    3
 2.667562501633414e-06    5    3    4    4
 1.459341326800903e-06    5    3    5    1
 -4.168037895596957e-07    5    3    5    2
 0.05620033064973545    5    3    5    3
 6.846387263054546e-06    5    4    1    1
 2.378185894802085e-06    5    4    2    1
 -5.912535843389469e-06    5    4    2    2
 -0.01873567643480049    5    4    3    1
 -0.006563570078808431    5    4    3    2
 -6.326396188503954e-06    5    4    3    3
 0.006563021241076347    5    4    4    1
 -0.01873773555653607    5    4    4    2
 2.016007177640944e-06    5    4    4    3
 1.335567727418861e-05    5    4    4    4
 -9.487347047767991e-07    5    4    5    1
 4.202524300373975e-06    5    4    5    2
 2.463466181662141e-07    5    4    5    3
 0.05620580532418017    5    4    5    4
 0.02832717789350265    5    5    1    1
 -3.115915639699193e-08    5    5    2    1
 0.02832632139902596    5    5    2    2
 1.459341326800903e-06    5    5    3    1
 -4.168037895596957e-07    5    5    3    2
 0.05620033064973545    5    5    3    3
 -9.487347047767991e-07    5    5    4    1
 4.202524300373975e-06    5    5    4    2
 2.463466181662141e-07    5    5    4    3
 0.05620580532418017    5    5    4    4
 1.307369760796254e-06    5    5    5    1
 -2.103591471260323e-06    5    5    5    2
 -1.645827919773044e-06    5    5    5    3
 -5.256536411200707e-06    5    5    5    4
 0.1690887065921927    5    5    5    5
 -1.193829033112016    1    1  0  0
 -7.517299646382894e-07    2    1  0  0
 -1.193792065449242    2    2  0  0
 -1.043719889340423e-06    3    1  0  0
 1.54294603086287e-06    3    2  0  0
 -0.8817600008011147    3    3  0  0
 -3.951704535157258e-06    4    1  0  0
 1.209327129558309e-05    4    2  0  0
 4.167824164871693e-07    4    3  0  0
 -0.8817282818207887    4    4  0  0
 -7.970740759245115e-06    5    1  0  0
 7.7763229627964e-06    5    2  0  0
 1.473779032146183e-08    5    3  0  0
 -5.107680244177681e-06    5    4  0  0
 -0.6928336786241539    5    5  0  0
 -224.9406931940702  0  0  0  0
