filename
SP        R                             3-21g
Number of atoms                            I               3
Charge                                     I               0
Multiplicity                               I               0
Number of electrons                        I               10
Number of alpha electrons                  I               5
Number of beta electrons                   I               5
Atomic numbers                             I   N=           3
           8           1           1
Current cartesian coordinates              R   N=           9
  0.00000000e+00  0.00000000e+00  0.00000000e+00 -3.57106457e+00  0.00000000e+00
  0.00000000e+00  8.94123161e-01  3.45731774e+00  0.00000000e+00
Nuclear charges                            R   N=           3
  8.00000000e+00  1.00000000e+00  1.00000000e+00
Number of basis functions                  I               13
Number of contracted shells                I               9
Number of primitive shells                 I               15
Highest angular momentum                   I               1
Largest degree of contraction              I               3
Shell types                                I   N=           9
           0           0           0           1           1           0
           0           0           0
Number of primitives per shell             I   N=           9
           3           2           1           2           1           2
           1           2           1
Shell to atom map                          I   N=           9
           1           1           1           1           1           2
           2           3           3
Primitive exponents                        R   N=          15
  3.22037000e+02  4.84308000e+01  1.04206000e+01  7.40294000e+00  1.57620000e+00
  3.73684000e-01  7.40294000e+00  1.57620000e+00  3.73684000e-01  5.44717800e+00
  8.24547000e-01  1.83192000e-01  5.44717800e+00  8.24547000e-01  1.83192000e-01
Contraction coefficients                   R   N=          15
  5.92393934e-02  3.51499961e-01  7.07657921e-01 -4.04453583e-01  1.22156176e+00
  1.00000000e+00  2.44586107e-01  8.53955373e-01  1.00000000e+00  1.56284981e-01
  9.04690888e-01  1.00000000e+00  1.56284981e-01  9.04690888e-01  1.00000000e+00
P(S=P) Contraction coefficients            R   N=          15
  0.00000000e+00  0.00000000e+00  0.00000000e+00  0.00000000e+00  0.00000000e+00
  0.00000000e+00  0.00000000e+00  0.00000000e+00  0.00000000e+00  0.00000000e+00
  0.00000000e+00  0.00000000e+00  0.00000000e+00  0.00000000e+00  0.00000000e+00
Alpha Orbital Energies                     R   N=          13
  2.00000000e+00  2.00000000e+00  2.00000000e+00  1.99999999e+00  1.99999997e+00
  2.58804435e-08  6.13511164e-09  7.56342159e-11  2.47730062e-11  1.48761565e-13
  3.36813779e-16 -5.89279038e-17 -2.67129305e-16
Total SCF Density                          R   N=          91
  2.05469089e+00  7.26069849e-02  1.27340137e-01 -4.71229437e-01  3.71551230e-01
  1.34468239e+00 -2.94025992e-02  2.33725926e-02  1.46779466e-01  3.39876241e-01
  3.79739831e-02 -3.01861216e-02 -1.89568307e-01 -4.20039286e-02  3.61602150e-01
  1.06499972e-17 -1.46991419e-17 -1.06251244e-18 -4.36037430e-17  5.64699574e-17
  5.46829942e-01 -2.04345291e-02  2.73047156e-02  1.66136361e-01  3.56185332e-01
 -7.72769655e-02  2.99159986e-16  3.76470911e-01  2.63915601e-02 -3.52645288e-02
 -2.14568083e-01 -7.72769655e-02  3.96155696e-01  3.63262918e-16 -1.17177054e-01
  4.37079005e-01 -1.07989778e-17  4.09384191e-18  9.80547426e-17 -1.18808057e-17
 -1.78540383e-17  6.59474179e-01  4.10886065e-16  3.41197328e-16  7.95322568e-01
 -2.19909720e-02  2.61983749e-02  5.02492827e-02 -2.19770732e-01 -3.82022405e-03
 -8.12020629e-18 -2.27760892e-01  1.67963987e-02 -2.44068388e-17  1.59007308e-01
  2.24156032e-02 -7.97960328e-03 -6.14705836e-02 -1.88010991e-01 -7.95309266e-03
  3.10664120e-16 -1.94066360e-01  8.84434064e-03  3.59412749e-16  1.24853682e-01
  1.06813761e-01 -2.19909720e-02  2.61983749e-02  5.02492827e-02  5.87247377e-02
  2.11814008e-01  7.24945469e-17  4.07653793e-02  2.24711653e-01  4.93916424e-17
 -4.28090370e-02 -5.10844452e-02  1.59007308e-01  2.24156032e-02 -7.97960328e-03
 -6.14705836e-02  5.47739606e-02  1.80031102e-01 -4.18351803e-16  4.00277086e-02
  1.90099335e-01 -5.40195935e-16 -5.10844452e-02 -4.65644237e-02  1.24853682e-01
  1.06813761e-01
Alpha MO coefficients                      R   N=         169
 -9.87605986e-01 -9.10746106e-02  5.12743213e-02  2.13883935e-03 -2.76234739e-03
  4.28098900e-08 -3.95859174e-03  5.11259392e-03  5.16284407e-08 -9.68433523e-04
 -6.37051730e-03 -9.68432182e-04 -6.37051613e-03 -2.50371262e-07  1.67832419e-07
  5.98406956e-07  1.47303667e-08 -2.74042064e-08 -5.22891389e-01  1.58300498e-08
 -2.85245072e-08 -6.30603514e-01  5.55139583e-08 -3.81863676e-09  4.96350177e-08
 -8.94361471e-09 -2.26703676e-01  2.34398343e-01  7.95389317e-01  2.66599371e-02
 -3.44318240e-02  3.91260685e-07  2.88847828e-02 -3.73052508e-02  4.71857767e-07
  6.93392621e-02 -8.63870182e-03  6.93392353e-02 -8.63872516e-03 -9.98831093e-09
  1.37469003e-08  4.26724433e-08  3.09966362e-01  2.40001610e-01 -6.84280485e-09
  2.98870758e-01  2.31410477e-01 -8.25237707e-09 -2.24618216e-01 -1.95811336e-01
  2.24618232e-01  1.95811341e-01  2.42015594e-02 -2.08257479e-02 -1.92558349e-01
 -2.70450429e-01  3.49291554e-01  2.58504846e-09 -3.13147656e-01  4.04435787e-01
  3.11755109e-09  1.55696713e-01  1.22270242e-01  1.55696702e-01  1.22270232e-01
  1.15678777e-01 -1.19579228e-01 -8.29155085e-01  2.69257138e-01 -3.47750415e-01
  5.00202188e-12  2.01099120e-01 -2.59723112e-01 -4.69907066e-12  2.52217175e-01
  6.31121353e-01  2.52217176e-01  6.31121354e-01  2.30000665e-10  4.32468916e-09
 -5.11643531e-09  4.08433024e-01  3.16242633e-01 -2.66416308e-09  4.93111362e-01
  3.81807606e-01  2.50280485e-09  3.78071585e-01  6.64333757e-01 -3.78071562e-01
 -6.64333769e-01 -3.38630627e-02  5.87237463e-01 -9.89414347e-01 -3.39216747e-01
  4.38104302e-01  9.71714823e-07  3.03315848e-01 -3.91737617e-01 -9.12861821e-07
 -5.90248948e-01  8.24366730e-01 -5.90248173e-01  8.24365547e-01  4.87843891e-07
  4.00096980e-07 -3.15868977e-06 -6.64496160e-06  3.00645680e-06  1.02846082e+00
  1.03721575e-05 -4.63069318e-06 -9.66170928e-01  9.81150653e-06 -2.60417906e-06
  3.56420598e-06 -5.50219533e-07  9.20918554e-02 -1.49903532e+00  1.59824920e+00
 -1.73654052e-01  2.24002963e-01 -9.50629917e-07  6.53786917e-03 -8.04589393e-03
  8.93053945e-07 -3.22050078e-01 -1.09511469e-01 -3.22025232e-01 -1.09820174e-01
 -3.77629727e-02 -2.38150461e-01  5.67081240e-01  6.47550276e-02 -8.13664918e-01
  6.72018490e-06 -1.39183547e-01  1.24063560e+00 -6.31316933e-06 -6.76664241e-01
  4.68220690e-01 -6.32360855e-01 -3.26251610e-01 -3.39071271e-03 -2.14630578e-02
  5.10319085e-02 -4.19835553e-02 -1.10134105e-01 -2.58187269e-06  1.42668276e-01
  2.31663024e-01  2.42549866e-06  8.23627043e-01 -9.99731267e-01 -9.41311229e-01
  1.01248417e+00 -1.93577947e-02 -1.22481042e-01  2.91269423e-01  9.17202878e-01
  2.67039569e-01  7.03895378e-06 -1.37106680e+00 -3.69751343e-01 -6.61263161e-06
 -4.47301108e-01 -5.61560708e-01 -2.24464110e-01  6.34360750e-01
