filename
SP        R                             3-21G
Number of atoms                            I               4
Charge                                     I               0
Multiplicity                               I               1
Number of electrons                        I               4
Number of alpha electrons                  I               2
Number of beta electrons                   I               2
Atomic numbers                             I   N=           4
           1           1           1           1
Current cartesian coordinates              R   N=          12
  0.00000000e+00  0.00000000e+00 -4.25188378e+00  0.00000000e+00  0.00000000e+00
 -1.41729459e+00  0.00000000e+00  0.00000000e+00  1.41729459e+00  0.00000000e+00
  0.00000000e+00  4.25188378e+00
Nuclear charges                            R   N=           4
  1.00000000e+00  1.00000000e+00  1.00000000e+00  1.00000000e+00
Number of basis functions                  I               8
Number of contracted shells                I               8
Number of primitive shells                 I               12
Highest angular momentum                   I               0
Largest degree of contraction              I               2
Shell types                                I   N=           8
           0           0           0           0           0           0
           0           0
Number of primitives per shell             I   N=           8
           2           1           2           1           2           1
           2           1
Shell to atom map                          I   N=           8
           1           1           2           2           3           3
           4           4
Primitive exponents                        R   N=          12
  5.44717800e+00  8.24547000e-01  1.83192000e-01  5.44717800e+00  8.24547000e-01
  1.83192000e-01  5.44717800e+00  8.24547000e-01  1.83192000e-01  5.44717800e+00
  8.24547000e-01  1.83192000e-01
Contraction coefficients                   R   N=          12
  1.56284981e-01  9.04690888e-01  1.00000000e+00  1.56284981e-01  9.04690888e-01
  1.00000000e+00  1.56284981e-01  9.04690888e-01  1.00000000e+00  1.56284981e-01
  9.04690888e-01  1.00000000e+00
P(S=P) Contraction coefficients            R   N=          12
  0.00000000e+00  0.00000000e+00  0.00000000e+00  0.00000000e+00  0.00000000e+00
  0.00000000e+00  0.00000000e+00  0.00000000e+00  0.00000000e+00  0.00000000e+00
  0.00000000e+00  0.00000000e+00
Alpha Orbital Energies                     R   N=           8
 -4.95866277e-01 -3.84825184e-01 -5.84460397e-03  1.94584066e-01  1.18429637e+00
  1.19068783e+00  1.24132324e+00  1.29829278e+00
Total SCF Density                          R   N=          36
  8.53761013e-02  1.84061445e-01  3.97985028e-01  8.12607316e-02  1.71920385e-01
  8.64848651e-02  1.86691934e-01  3.98686064e-01  1.88322700e-01  4.20600293e-01
 -6.04676885e-04 -1.13577518e-02  2.75408410e-02  3.13731253e-02  8.64848651e-02
 -3.12901472e-02 -8.93265222e-02  3.13731253e-02  2.69246552e-03  1.88322700e-01
  4.20600293e-01 -2.83240611e-02 -7.04875066e-02 -6.04676885e-04 -3.12901472e-02
  8.12607316e-02  1.86691934e-01  8.53761013e-02 -7.04875066e-02 -1.71892510e-01
 -1.13577518e-02 -8.93265222e-02  1.71920385e-01  3.98686064e-01  1.84061445e-01
  3.97985028e-01
Alpha MO coefficients                      R   N=          64
 -1.19427844e-01 -2.37745935e-01 -1.68838463e-01 -3.25304764e-01 -1.68838463e-01
 -3.25304764e-01 -1.19427844e-01 -2.37745935e-01  1.68597273e-01  3.77451168e-01
  1.21391952e-01  3.23228954e-01 -1.21391952e-01 -3.23228954e-01 -1.68597273e-01
 -3.77451168e-01 -1.59460921e-01 -5.78965162e-01  1.12984626e-01  3.88734691e-01
  1.12984626e-01  3.88734691e-01 -1.59460921e-01 -5.78965162e-01  1.13121200e-01
  5.74823100e-01 -1.90890986e-01 -8.66721034e-01  1.90890986e-01  8.66721034e-01
 -1.13121200e-01 -5.74823100e-01  9.13658655e-01 -8.24655949e-01 -9.11772859e-02
  2.10599121e-01 -9.11772859e-02  2.10599121e-01  9.13658655e-01 -8.24655949e-01
 -9.23930853e-01  8.77498403e-01  1.07031732e-02 -3.14048732e-01 -1.07031732e-02
  3.14048732e-01  9.23930853e-01 -8.77498403e-01 -9.92832728e-02 -6.48472344e-02
 -9.33941144e-01  6.88446764e-01 -9.33941144e-01  6.88446764e-01 -9.92832728e-02
 -6.48472344e-02  2.86441449e-03 -3.54924442e-01 -9.53143562e-01  1.32756962e+00
  9.53143562e-01 -1.32756962e+00 -2.86441449e-03  3.54924442e-01
