[Molden Format]
made by pyscf v[2.2.1]
[Atoms] (AU)
H   1   1     0.00000000000000     0.00000000000000     0.00000000000000
H   2   1     0.00000000000000     0.00000000000000     1.51178089965205
[GTO]
1 0
 s    2 1.00
              5.447178     0.1562849806701
              0.824547    0.90469088810453
 s    1 1.00
              0.183192                   1

2 0
 s    2 1.00
              5.447178     0.1562849806701
              0.824547    0.90469088810453
 s    1 1.00
              0.183192                   1

[5d]
[7f]
[9g]

[MO]
 Sym= A
 Ene=               0
 Spin= Alpha
 Occup=    1.00000
   1      0.28067477393494
   2      0.32563665646388
   3      0.28067477393494
   4      0.32563665646388
 Sym= A
 Ene=               1
 Spin= Alpha
 Occup=    0.00000
   1       0.1220364513844
   2       1.4938205169182
   3      -0.1220364513844
   4      -1.4938205169182
 Sym= A
 Ene=               2
 Spin= Alpha
 Occup=    0.00000
   1      0.81169913870677
   2     -0.66606032636105
   3      0.81169913870677
   4     -0.66606032636105
 Sym= A
 Ene=               3
 Spin= Alpha
 Occup=    0.00000
   1      -1.0334470135714
   2       1.2236332507849
   3       1.0334470135714
   4      -1.2236332507849
