filename
SP        R                             3-21g
Number of atoms                            I               2
Charge                                     I               0
Multiplicity                               I               1
Number of electrons                        I               2
Number of alpha electrons                  I               1
Number of beta electrons                   I               1
Atomic numbers                             I   N=           2
           1           1
Current cartesian coordinates              R   N=           6
  0.00000000e+00  0.00000000e+00  0.00000000e+00  0.00000000e+00  0.00000000e+00
  2.85685166e+00
Nuclear charges                            R   N=           2
  1.00000000e+00  1.00000000e+00
Number of basis functions                  I               4
Number of contracted shells                I               4
Number of primitive shells                 I               6
Highest angular momentum                   I               0
Largest degree of contraction              I               2
Shell types                                I   N=           4
           0           0           0           0
Number of primitives per shell             I   N=           4
           2           1           2           1
Shell to atom map                          I   N=           4
           1           1           2           2
Primitive exponents                        R   N=           6
  5.44717800e+00  8.24547000e-01  1.83192000e-01  5.44717800e+00  8.24547000e-01
  1.83192000e-01
Contraction coefficients                   R   N=           6
  1.56284981e-01  9.04690888e-01  1.00000000e+00  1.56284981e-01  9.04690888e-01
  1.00000000e+00
P(S=P) Contraction coefficients            R   N=           6
  0.00000000e+00  0.00000000e+00  0.00000000e+00  0.00000000e+00  0.00000000e+00
  0.00000000e+00
Alpha Orbital Energies                     R   N=           4
 -5.74733373e-01  2.46521529e-01  9.53131588e-01  1.45864320e+00
Total SCF Density                          R   N=          10
  1.57556657e-01  1.82795990e-01  2.12078464e-01  1.57556657e-01  1.82795990e-01
  1.57556657e-01  1.82795990e-01  2.12078464e-01  1.82795990e-01  2.12078464e-01
Alpha MO coefficients                      R   N=          16
  2.80674774e-01  3.25636656e-01  2.80674774e-01  3.25636656e-01  1.22036451e-01
  1.49382052e+00 -1.22036451e-01 -1.49382052e+00  8.11699139e-01 -6.66060326e-01
  8.11699139e-01 -6.66060326e-01 -1.03344701e+00  1.22363325e+00  1.03344701e+00
 -1.22363325e+00
