filename
SP        R                             3-21g
Number of atoms                            I               2
Charge                                     I               -1
Multiplicity                               I               0
Number of electrons                        I               10
Number of alpha electrons                  I               5
Number of beta electrons                   I               5
Atomic numbers                             I   N=           2
           1           8
Current cartesian coordinates              R   N=           6
  0.00000000e+00  0.00000000e+00  0.00000000e+00  0.00000000e+00  0.00000000e+00
  2.85685166e+00
Nuclear charges                            R   N=           2
  1.00000000e+00  8.00000000e+00
Number of basis functions                  I               11
Number of contracted shells                I               7
Number of primitive shells                 I               12
Highest angular momentum                   I               1
Largest degree of contraction              I               3
Shell types                                I   N=           7
           0           0           0           0           0           1
           1
Number of primitives per shell             I   N=           7
           2           1           3           2           1           2
           1
Shell to atom map                          I   N=           7
           1           1           2           2           2           2
           2
Primitive exponents                        R   N=          12
  5.44717800e+00  8.24547000e-01  1.83192000e-01  3.22037000e+02  4.84308000e+01
  1.04206000e+01  7.40294000e+00  1.57620000e+00  3.73684000e-01  7.40294000e+00
  1.57620000e+00  3.73684000e-01
Contraction coefficients                   R   N=          12
  1.56284981e-01  9.04690888e-01  1.00000000e+00  5.92393934e-02  3.51499961e-01
  7.07657921e-01 -4.04453583e-01  1.22156176e+00  1.00000000e+00  2.44586107e-01
  8.53955373e-01  1.00000000e+00
P(S=P) Contraction coefficients            R   N=          12
  0.00000000e+00  0.00000000e+00  0.00000000e+00  0.00000000e+00  0.00000000e+00
  0.00000000e+00  0.00000000e+00  0.00000000e+00  0.00000000e+00  0.00000000e+00
  0.00000000e+00  0.00000000e+00
Alpha Orbital Energies                     R   N=          11
 -1.98346226e+01 -8.18037047e-01 -1.20093542e-01  3.97134321e-02  3.97134321e-02
  6.88674028e-01  1.87445276e+00  2.29368584e+00  2.29368584e+00  2.37231055e+00
  3.48225169e+00
Total SCF Density                          R   N=          66
  2.62422492e-01  1.70142646e-01  1.25150976e-01 -3.36673639e-02  4.34901547e-02
  2.05513950e+00  5.11293239e-02  5.32991866e-04  8.04987360e-02  1.11826311e-01
 -5.12086493e-02 -1.81289648e-01 -4.82686536e-01  3.36815498e-01  1.50293186e+00
  1.10454354e-17  4.30839820e-16  2.98457888e-17 -3.18274256e-17 -2.58351137e-16
  4.60911653e-01 -2.12218641e-17  1.80792231e-16  8.93474144e-18  6.60390571e-18
 -1.18988876e-16  4.76762016e-17  4.60911653e-01 -2.71130389e-01 -1.99442828e-01
 -3.74033842e-02  3.34763129e-03  2.91927302e-01  2.01316537e-17  4.27429348e-17
  3.18414177e-01  3.22102023e-17  6.15037082e-16  3.32576344e-17 -5.01066606e-17
 -3.94882381e-16  6.43171593e-01  3.43966895e-16  5.70666810e-18  8.97503231e-01
 -3.39589201e-17  2.48507193e-16  8.00398064e-18  1.03724417e-17 -1.55694786e-16
  2.37676917e-17  6.43171593e-01  6.56488179e-17  3.70072334e-16  8.97503231e-01
 -2.55036014e-01 -1.96226740e-01 -3.97670809e-02  2.64686882e-02  3.63734075e-01
  2.44320879e-16  2.97167013e-17  3.13863645e-01  3.17806309e-16  4.76574174e-17
  3.14374016e-01
Alpha MO coefficients                      R   N=         121
  9.56999332e-04  1.28080717e-02  9.83035782e-01  9.49762199e-02 -3.60905618e-02
  4.23503748e-18  8.95735832e-19 -3.58100920e-03 -1.72084583e-18  2.49753499e-20
  7.14207844e-03  2.16553662e-01  7.20317420e-02 -2.23722051e-01  2.06222188e-01
  6.49787083e-01  3.84524939e-18 -1.76236495e-18 -1.12842932e-01  4.54589445e-18
 -1.67320510e-18 -6.44242081e-02 -2.90370180e-01 -2.39213021e-01 -1.05635444e-01
  6.60687688e-02  5.72660589e-01  1.31444113e-16  5.29103803e-17  3.82701891e-01
  1.53861436e-16  8.18973188e-17  3.91133634e-01  8.37669948e-17  5.54213290e-16
  5.54790113e-17 -4.73017622e-17 -4.66921625e-16  4.23370588e-01  2.26303274e-01
 -7.21862207e-17  5.90785530e-01  3.15791185e-01  1.24521873e-16 -3.26505705e-17
 -5.25587796e-17 -8.91256987e-18  2.54839100e-17  4.02702853e-17 -2.26303274e-01
  4.23370588e-01  4.07748687e-17 -3.15791185e-01  5.90785530e-01 -8.06298868e-17
 -7.86299055e-02  1.62171479e+00  9.25196887e-02 -2.85524061e-03 -1.04639446e+00
  9.77634718e-18 -9.64965593e-17  1.98016758e-01 -2.20236686e-16  1.59459943e-17
  5.86364289e-01  1.55979702e+00 -2.72925031e-01  6.57635329e-02 -9.68901773e-03
 -6.05809929e-01  1.21735981e-16  7.40205742e-17  1.20974897e-01 -1.37701691e-16
 -4.19436702e-17  9.85902957e-01 -2.86867435e-16  6.83346317e-16  4.22533096e-17
 -2.15170253e-16 -1.30329048e-16  1.02144191e+00  2.39473689e-01 -1.73458933e-15
 -9.14560729e-01 -2.14415748e-01  1.50556487e-15 -2.86035088e-17  1.50812044e-16
  8.01886994e-18 -1.31726035e-17 -7.15820801e-17 -2.39473689e-01  1.02144191e+00
  2.33255626e-17  2.14415748e-01 -9.14560729e-01  4.03107304e-17 -3.08326289e-02
  4.67336735e-01  3.38208320e-02 -1.19678676e-01 -1.89609663e-01 -1.72938934e-15
 -3.46274538e-16 -1.06953256e+00  1.47768146e-15  3.44071473e-16  1.07644793e+00
 -1.79578603e-01 -7.34638236e-01  1.02310668e-01 -1.61083275e+00  1.90346833e+00
 -6.81984191e-17 -1.24413990e-17  1.65495033e-01  2.23182651e-17  1.06667365e-17
 -5.29243176e-01
