filename
SP        R                             3-21g
Number of atoms                            I               4
Charge                                     I               0
Multiplicity                               I               0
Number of electrons                        I               4
Number of alpha electrons                  I               2
Number of beta electrons                   I               2
Atomic numbers                             I   N=           4
           1           1           1           1
Current cartesian coordinates              R   N=          12
  0.00000000e+00  0.00000000e+00  0.00000000e+00  0.00000000e+00  0.00000000e+00
  2.49974520e+00  0.00000000e+00  0.00000000e+00  4.99949040e+00  0.00000000e+00
  0.00000000e+00  7.49923559e+00
Nuclear charges                            R   N=           4
  1.00000000e+00  1.00000000e+00  1.00000000e+00  1.00000000e+00
Number of basis functions                  I               8
Number of contracted shells                I               8
Number of primitive shells                 I               12
Highest angular momentum                   I               0
Largest degree of contraction              I               2
Shell types                                I   N=           8
           0           0           0           0           0           0
           0           0
Number of primitives per shell             I   N=           8
           2           1           2           1           2           1
           2           1
Shell to atom map                          I   N=           8
           1           1           2           2           3           3
           4           4
Primitive exponents                        R   N=          12
  5.44717800e+00  8.24547000e-01  1.83192000e-01  5.44717800e+00  8.24547000e-01
  1.83192000e-01  5.44717800e+00  8.24547000e-01  1.83192000e-01  5.44717800e+00
  8.24547000e-01  1.83192000e-01
Contraction coefficients                   R   N=          12
  1.56284981e-01  9.04690888e-01  1.00000000e+00  1.56284981e-01  9.04690888e-01
  1.00000000e+00  1.56284981e-01  9.04690888e-01  1.00000000e+00  1.56284981e-01
  9.04690888e-01  1.00000000e+00
P(S=P) Contraction coefficients            R   N=          12
  0.00000000e+00  0.00000000e+00  0.00000000e+00  0.00000000e+00  0.00000000e+00
  0.00000000e+00  0.00000000e+00  0.00000000e+00  0.00000000e+00  0.00000000e+00
  0.00000000e+00  0.00000000e+00
Alpha Orbital Energies                     R   N=           8
 -3.08607184e-02 -1.63889823e-02  9.58488693e-03  1.89425581e-02  3.28105037e-02
  4.73566353e-02  4.89212877e-02  7.50013057e-02
Total SCF Density                          R   N=          36
  1.76351749e-01  1.69510611e-01  1.73737932e-01  1.81587574e-01  1.56121175e-01
  2.18393581e-01  2.93502494e-01  2.97483626e-01  2.76011869e-01  5.10335260e-01
 -7.53681116e-03 -5.57814566e-02  7.50081181e-02 -8.15850840e-02  2.18393581e-01
 -1.78165294e-01 -2.30992092e-01 -8.15850840e-02 -3.81495602e-01  2.76011869e-01
  5.10335260e-01 -7.31019441e-02 -1.09987423e-01 -7.53681116e-03 -1.78165294e-01
  1.81587574e-01  2.93502494e-01  1.76351749e-01 -1.09987423e-01 -1.39423001e-01
 -5.57814566e-02 -2.30992092e-01  1.56121175e-01  2.97483626e-01  1.69510611e-01
  1.73737932e-01
Alpha MO coefficients                      R   N=          64
  1.60662538e-01  9.26214487e-02  2.70832835e-01  1.79471208e-01  2.70832835e-01
  1.79471208e-01  1.60662538e-01  9.26214487e-02 -2.49726697e-01 -2.79803919e-01
 -1.89331365e-01 -4.72183985e-01  1.89331365e-01  4.72183985e-01  2.49726697e-01
  2.79803919e-01  9.75097516e-02  1.31610090e+00 -1.82841202e-01 -8.97594308e-01
 -1.82841202e-01 -8.97594308e-01  9.75097516e-02  1.31610090e+00 -1.60521547e-01
  2.88154798e+00 -1.46119323e-01 -5.74637575e+00  1.46119323e-01  5.74637575e+00
  1.60521547e-01 -2.88154798e+00 -4.67649181e-01 -1.26409673e-01 -5.66115522e-01
  8.27742137e-01 -5.66115522e-01  8.27742137e-01 -4.67649181e-01 -1.26409673e-01
  7.38366464e-01  1.45128434e+00  4.70119034e-01 -5.60118116e+00 -4.70119034e-01
  5.60118116e+00 -7.38366464e-01 -1.45128434e+00 -8.09891903e-01  1.31748173e+00
  6.15983608e-01 -1.06712399e+00  6.15983608e-01 -1.06712399e+00 -8.09891903e-01
  1.31748173e+00  6.67080493e-01 -1.30346995e+00 -1.15010844e+00  2.83543388e+00
  1.15010844e+00 -2.83543388e+00 -6.67080493e-01  1.30346995e+00
