 &FCI NORB=   4,NELEC= 4,MS2=0,
  ORBSYM=1,1,1,1,
  ISYM=1,
 &END
 0.3517956411040085    1    1    1    1
 1.399129229987244e-06    2    1    1    1
 0.02852609845164523    2    1    2    1
 0.294733192570026    2    2    1    1
 -2.800499982167498e-06    2    2    2    1
 0.3517926222052361    2    2    2    2
 -1.405548842477183e-05    3    1    1    1
 -4.708328740849616e-06    3    1    2    1
 7.872001541149934e-06    3    1    2    2
 0.05552236162318173    3    1    3    1
 -1.641204522052214e-06    3    2    1    1
 -1.56493509817935e-06    3    2    2    1
 1.94199243432145e-06    3    2    2    2
 -3.20883241342225e-06    3    2    3    1
 0.09657812634360825    3    2    3    2
 0.2995414121868312    3    3    1    1
 -2.828300306581544e-06    3    3    2    1
 0.3522855038571362    3    3    2    2
 6.387253545295929e-06    3    3    3    1
 5.249496161152667e-06    3    3    3    2
 0.3586690545484235    3    3    3    3
 2.531850832647453e-06    4    1    1    1
 -1.16999828885531e-06    4    1    2    1
 -1.363793017239434e-06    4    1    2    2
 3.469613061242048e-06    4    1    3    1
 -0.01101526990617285    4    1    3    2
 -2.002726932202881e-06    4    1    3    3
 0.09656483850559641    4    1    4    1
 -1.142036645643003e-05    4    2    1    1
 -4.461716900532736e-06    4    2    2    1
 7.963101457690927e-06    4    2    2    2
 0.05205225723969326    4    2    3    1
 -3.051834901263151e-06    4    2    3    2
 5.300902330218106e-06    4    2    3    3
 3.319819808072014e-06    4    2    4    1
 0.05552303065254802    4    2    4    2
 1.412434621931007e-06    4    3    1    1
 0.02636734656278653    4    3    2    1
 -3.027916060912086e-06    4    3    2    2
 -2.186167232630029e-06    4    3    3    1
 -3.629539654627194e-06    4    3    3    2
 -3.225071158487886e-06    4    3    3    3
 -2.304008701208818e-06    4    3    4    1
 -1.939212749784217e-06    4    3    4    2
 0.02818990080204378    4    3    4    3
 0.3522868447843683    4    4    1    1
 1.622280361546213e-06    4    4    2    1
 0.2995425977965362    4    4    2    2
 -1.445009950580035e-05    4    4    3    1
 -2.094354238230123e-06    4    4    3    2
 0.3022789406456964    4    4    3    3
 6.68212246823785e-06    4    4    4    1
 -1.296157772916629e-05    4    4    4    2
 1.861268072902988e-06    4    4    4    3
 0.3586700416243358    4    4    4    4
 -1.193829560372912    1    1  0  0
 -9.413907721982963e-07    2    1  0  0
 -1.193792201858709    2    2  0  0
 7.859057249380949e-07    3    1  0  0
 -2.91940891972317e-06    3    2  0  0
 -0.8817601832201002    3    3  0  0
 -6.860502912029828e-07    4    1  0  0
 1.391825864738937e-05    4    2  0  0
 1.978534546278406e-07    4    3  0  0
 -0.8817289372707408    4    4  0  0
 -224.9406918176823  0  0  0  0
